2400
Lattice="137.35000000000002 0.0 0.0 0.0 103.90748797187103 0.0 0.0 0.0 13.0" Properties=species:S:1:pos:R:3:masses:R:1:fix:L:1:stokes:R:1:forces:R:3 stress="0.005993717498016734 -2.751856423291811e-19 0.0 -2.751856423291811e-19 0.01977208847755383 0.0 0.0 0.0 0.0" cell_origin="-68.67500000000001 -51.95374398593552 0.0" E_G=0.276923076923077 pbc="T T T" OrigHeight=43.907487971871035 energy=21.825336362534085 eps_G=0.048368032177157724
H     -38.67500000     -25.13932217       6.50000000       1.00000000  T       1.00000000       0.00000000      -0.00000000       0.00000000 
H     -38.02500000     -24.01348915       6.50000000       1.00000000  F       0.90000000       0.00000000       0.00000000       0.00000000 
H     -38.67500000     -22.88765612       6.50000000       1.00000000  F       1.00000000       0.00000000      -0.00000000       0.00000000 
H     -38.02500000     -21.76182310       6.50000000       1.00000000  F       0.90000000       0.00000000       0.00000000       0.00000000 
H     -38.67500000     -20.63599007       6.50000000       1.00000000  F       1.00000000       0.00000000       0.00000000       0.00000000 
H     -38.02500000     -19.51015705       6.50000000       1.00000000  F       0.90000000       0.00000000      -0.00000000       0.00000000 
H     -38.67500000     -18.38432402       6.50000000       1.00000000  F       1.00000000       0.00000000       0.00000000       0.00000000 
H     -38.02500000     -17.25849100       6.50000000       1.00000000  F       0.90000000       0.00000000       0.00000000       0.00000000 
H     -38.67500000     -16.13265797       6.50000000       1.00000000  F       1.00000000       0.00000000       0.00000000       0.00000000 
H     -38.02500000     -15.00682495       6.50000000       1.00000000  F       0.90000000       0.00000000       0.00000000       0.00000000 
H     -38.67500000     -13.88099192       6.50000000       1.00000000  F       1.00000000       0.00000000      -0.00000000       0.00000000 
H     -38.02500000     -12.75515890       6.50000000       1.00000000  F       0.90000000       0.00000000       0.00000000       0.00000000 
H     -38.67500000     -11.62932587       6.50000000       1.00000000  F       1.00000000       0.00000000       0.00000000       0.00000000 
H     -38.02500000     -10.50349285       6.50000000       1.00000000  F       0.90000000       0.00000000      -0.00000000       0.00000000 
H     -38.67500000      -9.37765982       6.50000000       1.00000000  F       1.00000000       0.00000000       0.00000000       0.00000000 
H     -38.02500000      -8.25182680       6.50000000       1.00000000  F       0.90000000       0.00000000       0.00000000       0.00000000 
H     -38.67500000      -7.12599377       6.50000000       1.00000000  F       1.00000000       0.00000000       0.00000000       0.00000000 
H     -38.02500000      -6.00016075       6.50000000       1.00000000  F       0.90000000       0.00000000      -0.00000000       0.00000000 
H     -38.67500000      -4.87432772       6.50000000       1.00000000  F       1.00000000       0.00000000       0.00000000       0.00000000 
H     -38.02500000      -3.74849470       6.50000000       1.00000000  F       0.90000000       0.00000000       0.00000000       0.00000000 
H     -38.67500000       3.74849470       6.50000000       1.00000000  F       1.00000000       0.00000000       0.00000000       0.00000000 
H     -38.02500000       4.87432772       6.50000000       1.00000000  F       0.90000000       0.00000000      -0.00000000       0.00000000 
H     -38.67500000       6.00016075       6.50000000       1.00000000  F       1.00000000       0.00000000       0.00000000       0.00000000 
H     -38.02500000       7.12599377       6.50000000       1.00000000  F       0.90000000       0.00000000      -0.00000000       0.00000000 
H     -38.67500000       8.25182680       6.50000000       1.00000000  F       1.00000000       0.00000000       0.00000000       0.00000000 
H     -38.02500000       9.37765982       6.50000000       1.00000000  F       0.90000000       0.00000000       0.00000000       0.00000000 
H     -38.67500000      10.50349285       6.50000000       1.00000000  F       1.00000000       0.00000000      -0.00000000       0.00000000 
H     -38.02500000      11.62932587       6.50000000       1.00000000  F       0.90000000       0.00000000       0.00000000       0.00000000 
H     -38.67500000      12.75515890       6.50000000       1.00000000  F       1.00000000       0.00000000       0.00000000       0.00000000 
H     -38.02500000      13.88099192       6.50000000       1.00000000  F       0.90000000       0.00000000       0.00000000       0.00000000 
H     -38.67500000      15.00682495       6.50000000       1.00000000  F       1.00000000       0.00000000       0.00000000       0.00000000 
H     -38.02500000      16.13265797       6.50000000       1.00000000  F       0.90000000       0.00000000      -0.00000000       0.00000000 
H     -38.67500000      17.25849100       6.50000000       1.00000000  F       1.00000000       0.00000000       0.00000000       0.00000000 
H     -38.02500000      18.38432402       6.50000000       1.00000000  F       0.90000000       0.00000000       0.00000000       0.00000000 
H     -38.67500000      19.51015705       6.50000000       1.00000000  F       1.00000000       0.00000000      -0.00000000       0.00000000 
H     -38.02500000      20.63599007       6.50000000       1.00000000  F       0.90000000       0.00000000       0.00000000       0.00000000 
H     -38.67500000      21.76182310       6.50000000       1.00000000  F       1.00000000       0.00000000       0.00000000       0.00000000 
H     -38.02500000      22.88765612       6.50000000       1.00000000  F       0.90000000       0.00000000      -0.00000000       0.00000000 
H     -38.67500000      24.01348915       6.50000000       1.00000000  F       1.00000000       0.00000000       0.00000000       0.00000000 
H     -38.02500000      25.13932217       6.50000000       1.00000000  T       0.90000000       0.00000000       0.00000000       0.00000000 
H     -37.37500000     -25.13932217       6.50000000       1.00000000  T       0.80000000       0.00000000      -0.00000000       0.00000000 
H     -36.72500000     -24.01348915       6.50000000       1.00000000  F       0.70000000      -0.00000000       0.00000000       0.00000000 
H     -37.37500000     -22.88765612       6.50000000       1.00000000  F       0.80000000       0.00000000       0.00000000       0.00000000 
H     -36.72500000     -21.76182310       6.50000000       1.00000000  F       0.70000000      -0.00000000       0.00000000       0.00000000 
H     -37.37500000     -20.63599007       6.50000000       1.00000000  F       0.80000000       0.00000000       0.00000000       0.00000000 
H     -36.72500000     -19.51015705       6.50000000       1.00000000  F       0.70000000      -0.00000000      -0.00000000       0.00000000 
H     -37.37500000     -18.38432402       6.50000000       1.00000000  F       0.80000000       0.00000000       0.00000000       0.00000000 
H     -36.72500000     -17.25849100       6.50000000       1.00000000  F       0.70000000      -0.00000000       0.00000000       0.00000000 
H     -37.37500000     -16.13265797       6.50000000       1.00000000  F       0.80000000       0.00000000       0.00000000       0.00000000 
H     -36.72500000     -15.00682495       6.50000000       1.00000000  F       0.70000000      -0.00000000       0.00000000       0.00000000 
H     -37.37500000     -13.88099192       6.50000000       1.00000000  F       0.80000000       0.00000000      -0.00000000       0.00000000 
H     -36.72500000     -12.75515890       6.50000000       1.00000000  F       0.70000000      -0.00000000       0.00000000       0.00000000 
H     -37.37500000     -11.62932587       6.50000000       1.00000000  F       0.80000000       0.00000000       0.00000000       0.00000000 
H     -36.72500000     -10.50349285       6.50000000       1.00000000  F       0.70000000      -0.00000000      -0.00000000       0.00000000 
H     -37.37500000      -9.37765982       6.50000000       1.00000000  F       0.80000000       0.00000000       0.00000000       0.00000000 
H     -36.72500000      -8.25182680       6.50000000       1.00000000  F       0.70000000      -0.00000000       0.00000000       0.00000000 
H     -37.37500000      -7.12599377       6.50000000       1.00000000  F       0.80000000       0.00000000       0.00000000       0.00000000 
H     -36.72500000      -6.00016075       6.50000000       1.00000000  F       0.70000000      -0.00000000      -0.00000000       0.00000000 
H     -37.37500000      -4.87432772       6.50000000       1.00000000  F       0.80000000       0.00000000       0.00000000       0.00000000 
H     -36.72500000      -3.74849470       6.50000000       1.00000000  F       0.70000000      -0.00000000       0.00000000       0.00000000 
H     -37.37500000       3.74849470       6.50000000       1.00000000  F       0.80000000       0.00000000       0.00000000       0.00000000 
H     -36.72500000       4.87432772       6.50000000       1.00000000  F       0.70000000      -0.00000000      -0.00000000       0.00000000 
H     -37.37500000       6.00016075       6.50000000       1.00000000  F       0.80000000       0.00000000       0.00000000       0.00000000 
H     -36.72500000       7.12599377       6.50000000       1.00000000  F       0.70000000      -0.00000000      -0.00000000       0.00000000 
H     -37.37500000       8.25182680       6.50000000       1.00000000  F       0.80000000       0.00000000       0.00000000       0.00000000 
H     -36.72500000       9.37765982       6.50000000       1.00000000  F       0.70000000      -0.00000000       0.00000000       0.00000000 
H     -37.37500000      10.50349285       6.50000000       1.00000000  F       0.80000000       0.00000000      -0.00000000       0.00000000 
H     -36.72500000      11.62932587       6.50000000       1.00000000  F       0.70000000      -0.00000000       0.00000000       0.00000000 
H     -37.37500000      12.75515890       6.50000000       1.00000000  F       0.80000000       0.00000000       0.00000000       0.00000000 
H     -36.72500000      13.88099192       6.50000000       1.00000000  F       0.70000000      -0.00000000       0.00000000       0.00000000 
H     -37.37500000      15.00682495       6.50000000       1.00000000  F       0.80000000       0.00000000       0.00000000       0.00000000 
H     -36.72500000      16.13265797       6.50000000       1.00000000  F       0.70000000      -0.00000000      -0.00000000       0.00000000 
H     -37.37500000      17.25849100       6.50000000       1.00000000  F       0.80000000       0.00000000       0.00000000       0.00000000 
H     -36.72500000      18.38432402       6.50000000       1.00000000  F       0.70000000      -0.00000000       0.00000000       0.00000000 
H     -37.37500000      19.51015705       6.50000000       1.00000000  F       0.80000000       0.00000000      -0.00000000       0.00000000 
H     -36.72500000      20.63599007       6.50000000       1.00000000  F       0.70000000      -0.00000000       0.00000000       0.00000000 
H     -37.37500000      21.76182310       6.50000000       1.00000000  F       0.80000000       0.00000000       0.00000000       0.00000000 
H     -36.72500000      22.88765612       6.50000000       1.00000000  F       0.70000000      -0.00000000      -0.00000000       0.00000000 
H     -37.37500000      24.01348915       6.50000000       1.00000000  F       0.80000000       0.00000000       0.00000000       0.00000000 
H     -36.72500000      25.13932217       6.50000000       1.00000000  T       0.70000000      -0.00000000       0.00000000       0.00000000 
H     -36.07500000     -25.13932217       6.50000000       1.00000000  T       0.60000000       0.00000000      -0.00000000       0.00000000 
H     -35.42500000     -24.01348915       6.50000000       1.00000000  F       0.50000000       0.00000000       0.00000000       0.00000000 
H     -36.07500000     -22.88765612       6.50000000       1.00000000  F       0.60000000       0.00000000       0.00000000       0.00000000 
H     -35.42500000     -21.76182310       6.50000000       1.00000000  F       0.50000000       0.00000000       0.00000000       0.00000000 
H     -36.07500000     -20.63599007       6.50000000       1.00000000  F       0.60000000       0.00000000       0.00000000       0.00000000 
H     -35.42500000     -19.51015705       6.50000000       1.00000000  F       0.50000000       0.00000000      -0.00000000       0.00000000 
H     -36.07500000     -18.38432402       6.50000000       1.00000000  F       0.60000000       0.00000000       0.00000000       0.00000000 
H     -35.42500000     -17.25849100       6.50000000       1.00000000  F       0.50000000       0.00000000       0.00000000       0.00000000 
H     -36.07500000     -16.13265797       6.50000000       1.00000000  F       0.60000000       0.00000000       0.00000000       0.00000000 
H     -35.42500000     -15.00682495       6.50000000       1.00000000  F       0.50000000       0.00000000      -0.00000000       0.00000000 
H     -36.07500000     -13.88099192       6.50000000       1.00000000  F       0.60000000       0.00000000      -0.00000000       0.00000000 
H     -35.42500000     -12.75515890       6.50000000       1.00000000  F       0.50000000       0.00000000       0.00000000       0.00000000 
H     -36.07500000     -11.62932587       6.50000000       1.00000000  F       0.60000000       0.00000000       0.00000000       0.00000000 
H     -35.42500000     -10.50349285       6.50000000       1.00000000  F       0.50000000       0.00000000      -0.00000000       0.00000000 
H     -36.07500000      -9.37765982       6.50000000       1.00000000  F       0.60000000       0.00000000       0.00000000       0.00000000 
H     -35.42500000      -8.25182680       6.50000000       1.00000000  F       0.50000000       0.00000000       0.00000000       0.00000000 
H     -36.07500000      -7.12599377       6.50000000       1.00000000  F       0.60000000       0.00000000       0.00000000       0.00000000 
H     -35.42500000      -6.00016075       6.50000000       1.00000000  F       0.50000000       0.00000000      -0.00000000       0.00000000 
H     -36.07500000      -4.87432772       6.50000000       1.00000000  F       0.60000000       0.00000000       0.00000000       0.00000000 
H     -35.42500000      -3.74849470       6.50000000       1.00000000  F       0.50000000       0.00000000       0.00000000       0.00000000 
H     -36.07500000       3.74849470       6.50000000       1.00000000  F       0.60000000       0.00000000       0.00000000       0.00000000 
H     -35.42500000       4.87432772       6.50000000       1.00000000  F       0.50000000       0.00000000      -0.00000000       0.00000000 
H     -36.07500000       6.00016075       6.50000000       1.00000000  F       0.60000000       0.00000000       0.00000000       0.00000000 
H     -35.42500000       7.12599377       6.50000000       1.00000000  F       0.50000000       0.00000000      -0.00000000       0.00000000 
H     -36.07500000       8.25182680       6.50000000       1.00000000  F       0.60000000       0.00000000       0.00000000       0.00000000 
H     -35.42500000       9.37765982       6.50000000       1.00000000  F       0.50000000       0.00000000       0.00000000       0.00000000 
H     -36.07500000      10.50349285       6.50000000       1.00000000  F       0.60000000       0.00000000      -0.00000000       0.00000000 
H     -35.42500000      11.62932587       6.50000000       1.00000000  F       0.50000000       0.00000000       0.00000000       0.00000000 
H     -36.07500000      12.75515890       6.50000000       1.00000000  F       0.60000000       0.00000000       0.00000000       0.00000000 
H     -35.42500000      13.88099192       6.50000000       1.00000000  F       0.50000000       0.00000000       0.00000000       0.00000000 
H     -36.07500000      15.00682495       6.50000000       1.00000000  F       0.60000000       0.00000000       0.00000000       0.00000000 
H     -35.42500000      16.13265797       6.50000000       1.00000000  F       0.50000000       0.00000000      -0.00000000       0.00000000 
H     -36.07500000      17.25849100       6.50000000       1.00000000  F       0.60000000       0.00000000       0.00000000       0.00000000 
H     -35.42500000      18.38432402       6.50000000       1.00000000  F       0.50000000       0.00000000       0.00000000       0.00000000 
H     -36.07500000      19.51015705       6.50000000       1.00000000  F       0.60000000       0.00000000      -0.00000000       0.00000000 
H     -35.42500000      20.63599007       6.50000000       1.00000000  F       0.50000000       0.00000000       0.00000000       0.00000000 
H     -36.07500000      21.76182310       6.50000000       1.00000000  F       0.60000000       0.00000000       0.00000000       0.00000000 
H     -35.42500000      22.88765612       6.50000000       1.00000000  F       0.50000000       0.00000000      -0.00000000       0.00000000 
H     -36.07500000      24.01348915       6.50000000       1.00000000  F       0.60000000       0.00000000       0.00000000       0.00000000 
H     -35.42500000      25.13932217       6.50000000       1.00000000  T       0.50000000       0.00000000       0.00000000       0.00000000 
H     -34.77500000     -25.13932217       6.50000000       1.00000000  T       0.40000000      -0.00000000      -0.00000000       0.00000000 
H     -34.12500000     -24.01348915       6.50000000       1.00000000  F       0.30000000      -0.00000000      -0.00000000       0.00000000 
H     -34.77500000     -22.88765612       6.50000000       1.00000000  F       0.40000000      -0.00000000       0.00000000       0.00000000 
H     -34.12500000     -21.76182310       6.50000000       1.00000000  F       0.30000000      -0.00000000      -0.00000000       0.00000000 
H     -34.77500000     -20.63599007       6.50000000       1.00000000  F       0.40000000      -0.00000000       0.00000000       0.00000000 
H     -34.12500000     -19.51015705       6.50000000       1.00000000  F       0.30000000      -0.00000000      -0.00000000       0.00000000 
H     -34.77500000     -18.38432402       6.50000000       1.00000000  F       0.40000000      -0.00000000       0.00000000       0.00000000 
H     -34.12500000     -17.25849100       6.50000000       1.00000000  F       0.30000000      -0.00000000       0.00000000       0.00000000 
H     -34.77500000     -16.13265797       6.50000000       1.00000000  F       0.40000000      -0.00000000       0.00000000       0.00000000 
H     -34.12500000     -15.00682495       6.50000000       1.00000000  F       0.30000000      -0.00000000       0.00000000       0.00000000 
H     -34.77500000     -13.88099192       6.50000000       1.00000000  F       0.40000000      -0.00000000      -0.00000000       0.00000000 
H     -34.12500000     -12.75515890       6.50000000       1.00000000  F       0.30000000      -0.00000000       0.00000000       0.00000000 
H     -34.77500000     -11.62932587       6.50000000       1.00000000  F       0.40000000      -0.00000000       0.00000000       0.00000000 
H     -34.12500000     -10.50349285       6.50000000       1.00000000  F       0.30000000      -0.00000000      -0.00000000       0.00000000 
H     -34.77500000      -9.37765982       6.50000000       1.00000000  F       0.40000000      -0.00000000       0.00000000       0.00000000 
H     -34.12500000      -8.25182680       6.50000000       1.00000000  F       0.30000000      -0.00000000       0.00000000       0.00000000 
H     -34.77500000      -7.12599377       6.50000000       1.00000000  F       0.40000000      -0.00000000       0.00000000       0.00000000 
H     -34.12500000      -6.00016075       6.50000000       1.00000000  F       0.30000000      -0.00000000      -0.00000000       0.00000000 
H     -34.77500000      -4.87432772       6.50000000       1.00000000  F       0.40000000      -0.00000000       0.00000000       0.00000000 
H     -34.12500000      -3.74849470       6.50000000       1.00000000  F       0.30000000      -0.00000000       0.00000000       0.00000000 
H     -34.77500000       3.74849470       6.50000000       1.00000000  F       0.40000000      -0.00000000       0.00000000       0.00000000 
H     -34.12500000       4.87432772       6.50000000       1.00000000  F       0.30000000      -0.00000000      -0.00000000       0.00000000 
H     -34.77500000       6.00016075       6.50000000       1.00000000  F       0.40000000      -0.00000000       0.00000000       0.00000000 
H     -34.12500000       7.12599377       6.50000000       1.00000000  F       0.30000000      -0.00000000      -0.00000000       0.00000000 
H     -34.77500000       8.25182680       6.50000000       1.00000000  F       0.40000000      -0.00000000       0.00000000       0.00000000 
H     -34.12500000       9.37765982       6.50000000       1.00000000  F       0.30000000      -0.00000000       0.00000000       0.00000000 
H     -34.77500000      10.50349285       6.50000000       1.00000000  F       0.40000000      -0.00000000      -0.00000000       0.00000000 
H     -34.12500000      11.62932587       6.50000000       1.00000000  F       0.30000000      -0.00000000      -0.00000000       0.00000000 
H     -34.77500000      12.75515890       6.50000000       1.00000000  F       0.40000000      -0.00000000       0.00000000       0.00000000 
H     -34.12500000      13.88099192       6.50000000       1.00000000  F       0.30000000      -0.00000000       0.00000000       0.00000000 
H     -34.77500000      15.00682495       6.50000000       1.00000000  F       0.40000000      -0.00000000       0.00000000       0.00000000 
H     -34.12500000      16.13265797       6.50000000       1.00000000  F       0.30000000      -0.00000000      -0.00000000       0.00000000 
H     -34.77500000      17.25849100       6.50000000       1.00000000  F       0.40000000      -0.00000000       0.00000000       0.00000000 
H     -34.12500000      18.38432402       6.50000000       1.00000000  F       0.30000000      -0.00000000       0.00000000       0.00000000 
H     -34.77500000      19.51015705       6.50000000       1.00000000  F       0.40000000      -0.00000000      -0.00000000       0.00000000 
H     -34.12500000      20.63599007       6.50000000       1.00000000  F       0.30000000      -0.00000000      -0.00000000       0.00000000 
H     -34.77500000      21.76182310       6.50000000       1.00000000  F       0.40000000      -0.00000000       0.00000000       0.00000000 
H     -34.12500000      22.88765612       6.50000000       1.00000000  F       0.30000000      -0.00000000      -0.00000000       0.00000000 
H     -34.77500000      24.01348915       6.50000000       1.00000000  F       0.40000000      -0.00000000       0.00000000       0.00000000 
H     -34.12500000      25.13932217       6.50000000       1.00000000  T       0.30000000      -0.00000000       0.00000000       0.00000000 
H     -33.47500000     -25.13932217       6.50000000       1.00000000  T       0.20000000       0.00000000      -0.00000000       0.00000000 
H     -32.82500000     -24.01348915       6.50000000       1.00000000  F       0.10000000      -0.00000000      -0.00000000       0.00000000 
H     -33.47500000     -22.88765612       6.50000000       1.00000000  F       0.20000000       0.00000000      -0.00000000       0.00000000 
H     -32.82500000     -21.76182310       6.50000000       1.00000000  F       0.10000000      -0.00000000      -0.00000000       0.00000000 
H     -33.47500000     -20.63599007       6.50000000       1.00000000  F       0.20000000       0.00000000       0.00000000       0.00000000 
H     -32.82500000     -19.51015705       6.50000000       1.00000000  F       0.10000000      -0.00000000      -0.00000000       0.00000000 
H     -33.47500000     -18.38432402       6.50000000       1.00000000  F       0.20000000       0.00000000       0.00000000       0.00000000 
H     -32.82500000     -17.25849100       6.50000000       1.00000000  F       0.10000000      -0.00000000       0.00000000       0.00000000 
H     -33.47500000     -16.13265797       6.50000000       1.00000000  F       0.20000000       0.00000000       0.00000000       0.00000000 
H     -32.82500000     -15.00682495       6.50000000       1.00000000  F       0.10000000      -0.00000000       0.00000000       0.00000000 
H     -33.47500000     -13.88099192       6.50000000       1.00000000  F       0.20000000       0.00000000      -0.00000000       0.00000000 
H     -32.82500000     -12.75515890       6.50000000       1.00000000  F       0.10000000      -0.00000000       0.00000000       0.00000000 
H     -33.47500000     -11.62932587       6.50000000       1.00000000  F       0.20000000       0.00000000       0.00000000       0.00000000 
H     -32.82500000     -10.50349285       6.50000000       1.00000000  F       0.10000000      -0.00000000      -0.00000000       0.00000000 
H     -33.47500000      -9.37765982       6.50000000       1.00000000  F       0.20000000       0.00000000       0.00000000       0.00000000 
H     -32.82500000      -8.25182680       6.50000000       1.00000000  F       0.10000000      -0.00000000       0.00000000       0.00000000 
H     -33.47500000      -7.12599377       6.50000000       1.00000000  F       0.20000000       0.00000000       0.00000000       0.00000000 
H     -32.82500000      -6.00016075       6.50000000       1.00000000  F       0.10000000      -0.00000000      -0.00000000       0.00000000 
H     -33.47500000      -4.87432772       6.50000000       1.00000000  F       0.20000000       0.00000000       0.00000000       0.00000000 
H     -32.82500000      -3.74849470       6.50000000       1.00000000  F       0.10000000      -0.00000000       0.00000000       0.00000000 
H     -33.47500000       3.74849470       6.50000000       1.00000000  F       0.20000000       0.00000000       0.00000000       0.00000000 
H     -32.82500000       4.87432772       6.50000000       1.00000000  F       0.10000000      -0.00000000      -0.00000000       0.00000000 
H     -33.47500000       6.00016075       6.50000000       1.00000000  F       0.20000000       0.00000000       0.00000000       0.00000000 
H     -32.82500000       7.12599377       6.50000000       1.00000000  F       0.10000000      -0.00000000      -0.00000000       0.00000000 
H     -33.47500000       8.25182680       6.50000000       1.00000000  F       0.20000000       0.00000000       0.00000000       0.00000000 
H     -32.82500000       9.37765982       6.50000000       1.00000000  F       0.10000000      -0.00000000       0.00000000       0.00000000 
H     -33.47500000      10.50349285       6.50000000       1.00000000  F       0.20000000       0.00000000      -0.00000000       0.00000000 
H     -32.82500000      11.62932587       6.50000000       1.00000000  F       0.10000000      -0.00000000      -0.00000000       0.00000000 
H     -33.47500000      12.75515890       6.50000000       1.00000000  F       0.20000000       0.00000000      -0.00000000       0.00000000 
H     -32.82500000      13.88099192       6.50000000       1.00000000  F       0.10000000      -0.00000000       0.00000000       0.00000000 
H     -33.47500000      15.00682495       6.50000000       1.00000000  F       0.20000000       0.00000000       0.00000000       0.00000000 
H     -32.82500000      16.13265797       6.50000000       1.00000000  F       0.10000000      -0.00000000      -0.00000000       0.00000000 
H     -33.47500000      17.25849100       6.50000000       1.00000000  F       0.20000000       0.00000000       0.00000000       0.00000000 
H     -32.82500000      18.38432402       6.50000000       1.00000000  F       0.10000000      -0.00000000       0.00000000       0.00000000 
H     -33.47500000      19.51015705       6.50000000       1.00000000  F       0.20000000       0.00000000      -0.00000000       0.00000000 
H     -32.82500000      20.63599007       6.50000000       1.00000000  F       0.10000000      -0.00000000      -0.00000000       0.00000000 
H     -33.47500000      21.76182310       6.50000000       1.00000000  F       0.20000000       0.00000000       0.00000000       0.00000000 
H     -32.82500000      22.88765612       6.50000000       1.00000000  F       0.10000000      -0.00000000      -0.00000000       0.00000000 
H     -33.47500000      24.01348915       6.50000000       1.00000000  F       0.20000000       0.00000000       0.00000000       0.00000000 
H     -32.82500000      25.13932217       6.50000000       1.00000000  T       0.10000000      -0.00000000       0.00000000       0.00000000 
H     -32.17500000     -25.13932217       6.50000000       1.00000000  T       0.00000000       0.00000000      -0.00000000       0.00000000 
H     -31.52500000     -24.01348915       6.50000000       1.00000000  F       0.00000000       0.00000000       0.00000000       0.00000000 
H     -32.17500000     -22.88765612       6.50000000       1.00000000  F       0.00000000       0.00000000      -0.00000000       0.00000000 
H     -31.52500000     -21.76182310       6.50000000       1.00000000  F       0.00000000       0.00000000       0.00000000       0.00000000 
H     -32.17500000     -20.63599007       6.50000000       1.00000000  F       0.00000000       0.00000000       0.00000000       0.00000000 
H     -31.52500000     -19.51015705       6.50000000       1.00000000  F       0.00000000       0.00000000      -0.00000000       0.00000000 
H     -32.17500000     -18.38432402       6.50000000       1.00000000  F       0.00000000       0.00000000       0.00000000       0.00000000 
H     -31.52500000     -17.25849100       6.50000000       1.00000000  F       0.00000000       0.00000000       0.00000000       0.00000000 